Created by Amborse hui from M^5 lab

10000 atoms
1 atom types
9900 bonds
1 bond types
9800 angles
1 angle types

0.0 314.6 xlo xhi
0.0 314.6 ylo yhi
0.0 314.6 zlo zhi

Masses

1 44.5 

Pair Coeffs # lj/cut

1 0.4988 4.628

Bond Coeffs # harmonic

1 1463.4 2.6

Angle Coeffs # harmonic

1 2.0 2.0

Atoms #angle 

1 1 1 57.2 192.4 228.8 0 0 0
2 1 1 54.6 192.4 231.4 0 0 0
3 1 1 54.6 189.8 228.8 0 0 0
4 1 1 52.0 189.8 226.20000000000002 0 0 0
5 1 1 52.0 192.4 223.6 0 0 0
6 1 1 49.4 192.4 226.20000000000002 0 0 0
7 1 1 49.4 195.0 228.8 0 0 0
8 1 1 46.800000000000004 195.0 231.4 0 0 0
9 1 1 46.800000000000004 197.6 228.8 0 0 0
10 1 1 46.800000000000004 195.0 226.20000000000002 0 0 0
11 1 1 46.800000000000004 192.4 226.20000000000002 0 0 0
12 1 1 44.2 195.0 226.20000000000002 0 0 0
13 1 1 44.2 197.6 228.8 0 0 0
14 1 1 41.6 200.20000000000002 228.8 0 0 0
15 1 1 41.6 197.6 226.20000000000002 0 0 0
16 1 1 44.2 195.0 228.8 0 0 0
17 1 1 46.800000000000004 192.4 228.8 0 0 0
18 1 1 49.4 192.4 231.4 0 0 0
19 1 1 52.0 195.0 231.4 0 0 0
20 1 1 54.6 197.6 228.8 0 0 0
21 1 1 57.2 195.0 231.4 0 0 0
22 1 1 57.2 197.6 234.0 0 0 0
23 1 1 59.800000000000004 200.20000000000002 236.6 0 0 0
24 1 1 57.2 202.8 236.6 0 0 0
25 1 1 54.6 200.20000000000002 239.20000000000002 0 0 0
26 1 1 52.0 200.20000000000002 241.8 0 0 0
27 1 1 52.0 197.6 244.4 0 0 0
28 1 1 54.6 200.20000000000002 247.0 0 0 0
29 1 1 57.2 200.20000000000002 244.4 0 0 0
30 1 1 59.800000000000004 202.8 241.8 0 0 0
31 1 1 59.800000000000004 200.20000000000002 239.20000000000002 0 0 0
32 1 1 57.2 202.8 239.20000000000002 0 0 0
33 1 1 57.2 200.20000000000002 236.6 0 0 0
34 1 1 54.6 202.8 239.20000000000002 0 0 0
35 1 1 52.0 200.20000000000002 236.6 0 0 0
36 1 1 49.4 197.6 239.20000000000002 0 0 0
37 1 1 49.4 195.0 239.20000000000002 0 0 0
38 1 1 52.0 192.4 236.6 0 0 0
39 1 1 54.6 192.4 236.6 0 0 0
40 1 1 52.0 189.8 239.20000000000002 0 0 0
41 1 1 52.0 189.8 241.8 0 0 0
42 1 1 54.6 192.4 244.4 0 0 0
43 1 1 54.6 195.0 241.8 0 0 0
44 1 1 52.0 197.6 239.20000000000002 0 0 0
45 1 1 49.4 200.20000000000002 239.20000000000002 0 0 0
46 1 1 49.4 202.8 241.8 0 0 0
47 1 1 46.800000000000004 200.20000000000002 244.4 0 0 0
48 1 1 46.800000000000004 200.20000000000002 241.8 0 0 0
49 1 1 49.4 200.20000000000002 241.8 0 0 0
50 1 1 46.800000000000004 197.6 239.20000000000002 0 0 0
51 1 1 46.800000000000004 200.20000000000002 236.6 0 0 0
52 1 1 44.2 200.20000000000002 239.20000000000002 0 0 0
53 1 1 44.2 197.6 241.8 0 0 0
54 1 1 41.6 197.6 239.20000000000002 0 0 0
55 1 1 44.2 197.6 239.20000000000002 0 0 0
56 1 1 41.6 195.0 239.20000000000002 0 0 0
57 1 1 44.2 195.0 241.8 0 0 0
58 1 1 46.800000000000004 192.4 239.20000000000002 0 0 0
59 1 1 49.4 192.4 241.8 0 0 0
60 1 1 52.0 189.8 244.4 0 0 0
61 1 1 52.0 192.4 244.4 0 0 0
62 1 1 52.0 192.4 241.8 0 0 0
63 1 1 54.6 195.0 239.20000000000002 0 0 0
64 1 1 57.2 195.0 239.20000000000002 0 0 0
65 1 1 59.800000000000004 197.6 239.20000000000002 0 0 0
66 1 1 62.400000000000006 200.20000000000002 236.6 0 0 0
67 1 1 62.400000000000006 197.6 234.0 0 0 0
68 1 1 65.0 197.6 234.0 0 0 0
69 1 1 67.60000000000001 197.6 231.4 0 0 0
70 1 1 67.60000000000001 197.6 228.8 0 0 0
71 1 1 67.60000000000001 195.0 228.8 0 0 0
72 1 1 70.2 192.4 231.4 0 0 0
73 1 1 72.8 192.4 228.8 0 0 0
74 1 1 75.4 189.8 231.4 0 0 0
75 1 1 78.0 189.8 231.4 0 0 0
76 1 1 78.0 192.4 228.8 0 0 0
77 1 1 78.0 189.8 226.20000000000002 0 0 0
78 1 1 75.4 189.8 226.20000000000002 0 0 0
79 1 1 72.8 187.20000000000002 228.8 0 0 0
80 1 1 70.2 184.6 231.4 0 0 0
81 1 1 67.60000000000001 187.20000000000002 234.0 0 0 0
82 1 1 67.60000000000001 189.8 231.4 0 0 0
83 1 1 65.0 187.20000000000002 228.8 0 0 0
84 1 1 62.400000000000006 187.20000000000002 226.20000000000002 0 0 0
85 1 1 59.800000000000004 184.6 223.6 0 0 0
86 1 1 57.2 187.20000000000002 226.20000000000002 0 0 0
87 1 1 54.6 184.6 228.8 0 0 0
88 1 1 57.2 182.0 228.8 0 0 0
89 1 1 54.6 179.4 231.4 0 0 0
90 1 1 52.0 182.0 228.8 0 0 0
91 1 1 49.4 179.4 226.20000000000002 0 0 0
92 1 1 52.0 179.4 226.20000000000002 0 0 0
93 1 1 54.6 176.8 223.6 0 0 0
94 1 1 52.0 176.8 226.20000000000002 0 0 0
95 1 1 52.0 176.8 228.8 0 0 0
96 1 1 49.4 179.4 231.4 0 0 0
97 1 1 49.4 176.8 234.0 0 0 0
98 1 1 49.4 174.20000000000002 236.6 0 0 0
99 1 1 49.4 176.8 239.20000000000002 0 0 0
100 1 1 49.4 174.20000000000002 239.20000000000002 0 0 0
101 1 1 239.20000000000002 156.0 46.800000000000004 0 0 0
102 1 1 236.6 153.4 46.800000000000004 0 0 0
103 1 1 239.20000000000002 156.0 44.2 0 0 0
104 1 1 236.6 156.0 44.2 0 0 0
105 1 1 236.6 156.0 41.6 0 0 0
106 1 1 234.0 158.6 44.2 0 0 0
107 1 1 234.0 158.6 41.6 0 0 0
108 1 1 236.6 161.20000000000002 41.6 0 0 0
109 1 1 239.20000000000002 158.6 41.6 0 0 0
110 1 1 239.20000000000002 161.20000000000002 39.0 0 0 0
111 1 1 236.6 161.20000000000002 39.0 0 0 0
112 1 1 234.0 163.8 39.0 0 0 0
113 1 1 236.6 161.20000000000002 36.4 0 0 0
114 1 1 239.20000000000002 163.8 39.0 0 0 0
115 1 1 236.6 166.4 39.0 0 0 0
116 1 1 239.20000000000002 169.0 36.4 0 0 0
117 1 1 239.20000000000002 166.4 36.4 0 0 0
118 1 1 241.8 169.0 33.800000000000004 0 0 0
119 1 1 244.4 169.0 31.200000000000003 0 0 0
120 1 1 244.4 166.4 33.800000000000004 0 0 0
121 1 1 244.4 163.8 31.200000000000003 0 0 0
122 1 1 241.8 161.20000000000002 33.800000000000004 0 0 0
123 1 1 241.8 163.8 33.800000000000004 0 0 0
124 1 1 241.8 163.8 31.200000000000003 0 0 0
125 1 1 244.4 166.4 28.6 0 0 0
126 1 1 244.4 166.4 31.200000000000003 0 0 0
127 1 1 244.4 163.8 33.800000000000004 0 0 0
128 1 1 244.4 161.20000000000002 31.200000000000003 0 0 0
129 1 1 247.0 161.20000000000002 31.200000000000003 0 0 0
130 1 1 247.0 163.8 33.800000000000004 0 0 0
131 1 1 247.0 166.4 33.800000000000004 0 0 0
132 1 1 249.60000000000002 169.0 31.200000000000003 0 0 0
133 1 1 247.0 171.6 31.200000000000003 0 0 0
134 1 1 249.60000000000002 169.0 28.6 0 0 0
135 1 1 247.0 169.0 28.6 0 0 0
136 1 1 247.0 171.6 26.0 0 0 0
137 1 1 247.0 171.6 28.6 0 0 0
138 1 1 244.4 171.6 31.200000000000003 0 0 0
139 1 1 247.0 174.20000000000002 31.200000000000003 0 0 0
140 1 1 247.0 176.8 31.200000000000003 0 0 0
141 1 1 247.0 174.20000000000002 28.6 0 0 0
142 1 1 247.0 176.8 26.0 0 0 0
143 1 1 244.4 179.4 23.400000000000002 0 0 0
144 1 1 247.0 182.0 20.8 0 0 0
145 1 1 244.4 179.4 18.2 0 0 0
146 1 1 247.0 179.4 18.2 0 0 0
147 1 1 244.4 176.8 20.8 0 0 0
148 1 1 241.8 179.4 23.400000000000002 0 0 0
149 1 1 244.4 176.8 26.0 0 0 0
150 1 1 247.0 179.4 26.0 0 0 0
151 1 1 249.60000000000002 179.4 23.400000000000002 0 0 0
152 1 1 252.20000000000002 182.0 23.400000000000002 0 0 0
153 1 1 252.20000000000002 184.6 26.0 0 0 0
154 1 1 249.60000000000002 182.0 23.400000000000002 0 0 0
155 1 1 249.60000000000002 184.6 20.8 0 0 0
156 1 1 249.60000000000002 182.0 20.8 0 0 0
157 1 1 252.20000000000002 179.4 20.8 0 0 0
158 1 1 249.60000000000002 179.4 18.2 0 0 0
159 1 1 247.0 182.0 15.600000000000001 0 0 0
160 1 1 247.0 179.4 15.600000000000001 0 0 0
161 1 1 244.4 176.8 15.600000000000001 0 0 0
162 1 1 241.8 179.4 15.600000000000001 0 0 0
163 1 1 241.8 182.0 13.0 0 0 0
164 1 1 239.20000000000002 184.6 10.4 0 0 0
165 1 1 236.6 182.0 13.0 0 0 0
166 1 1 234.0 179.4 10.4 0 0 0
167 1 1 231.4 182.0 7.800000000000001 0 0 0
168 1 1 228.8 179.4 5.2 0 0 0
169 1 1 228.8 176.8 7.800000000000001 0 0 0
170 1 1 226.20000000000002 179.4 5.2 0 0 0
171 1 1 226.20000000000002 179.4 7.800000000000001 0 0 0
172 1 1 223.6 182.0 5.2 0 0 0
173 1 1 221.0 182.0 2.6 0 0 0
174 1 1 218.4 182.0 2.6 0 0 0
175 1 1 215.8 182.0 2.6 0 0 0
176 1 1 213.20000000000002 179.4 0.0 0 0 0
177 1 1 215.8 182.0 0.0 0 0 0
178 1 1 218.4 179.4 2.6 0 0 0
179 1 1 218.4 179.4 0.0 0 0 0
180 1 1 221.0 176.8 -2.6 0 0 0
181 1 1 221.0 174.20000000000002 0.0 0 0 0
182 1 1 221.0 176.8 0.0 0 0 0
183 1 1 218.4 179.4 -2.6 0 0 0
184 1 1 218.4 179.4 -5.2 0 0 0
185 1 1 221.0 179.4 -5.2 0 0 0
186 1 1 223.6 176.8 -7.800000000000001 0 0 0
187 1 1 223.6 174.20000000000002 -5.2 0 0 0
188 1 1 226.20000000000002 176.8 -7.800000000000001 0 0 0
189 1 1 223.6 174.20000000000002 -7.800000000000001 0 0 0
190 1 1 221.0 176.8 -10.4 0 0 0
191 1 1 218.4 179.4 -13.0 0 0 0
192 1 1 215.8 179.4 -10.4 0 0 0
193 1 1 215.8 182.0 -7.800000000000001 0 0 0
194 1 1 213.20000000000002 184.6 -10.4 0 0 0
195 1 1 210.6 182.0 -13.0 0 0 0
196 1 1 213.20000000000002 182.0 -10.4 0 0 0
197 1 1 215.8 179.4 -7.800000000000001 0 0 0
198 1 1 213.20000000000002 176.8 -10.4 0 0 0
199 1 1 213.20000000000002 174.20000000000002 -7.800000000000001 0 0 0
200 1 1 213.20000000000002 171.6 -10.4 0 0 0
201 1 1 10.4 78.0 169.0 0 0 0
202 1 1 13.0 78.0 169.0 0 0 0
203 1 1 15.600000000000001 78.0 166.4 0 0 0
204 1 1 18.2 78.0 163.8 0 0 0
205 1 1 18.2 75.4 163.8 0 0 0
206 1 1 18.2 75.4 161.20000000000002 0 0 0
207 1 1 15.600000000000001 78.0 163.8 0 0 0
208 1 1 13.0 75.4 163.8 0 0 0
209 1 1 13.0 75.4 161.20000000000002 0 0 0
210 1 1 15.600000000000001 75.4 161.20000000000002 0 0 0
211 1 1 13.0 78.0 158.6 0 0 0
212 1 1 15.600000000000001 78.0 158.6 0 0 0
213 1 1 18.2 80.60000000000001 156.0 0 0 0
214 1 1 20.8 80.60000000000001 153.4 0 0 0
215 1 1 23.400000000000002 80.60000000000001 156.0 0 0 0
216 1 1 26.0 80.60000000000001 156.0 0 0 0
217 1 1 28.6 80.60000000000001 153.4 0 0 0
218 1 1 31.200000000000003 78.0 153.4 0 0 0
219 1 1 33.800000000000004 78.0 153.4 0 0 0
220 1 1 36.4 75.4 150.8 0 0 0
221 1 1 33.800000000000004 78.0 148.20000000000002 0 0 0
222 1 1 36.4 78.0 148.20000000000002 0 0 0
223 1 1 39.0 80.60000000000001 148.20000000000002 0 0 0
224 1 1 41.6 80.60000000000001 145.6 0 0 0
225 1 1 44.2 83.2 145.6 0 0 0
226 1 1 46.800000000000004 83.2 145.6 0 0 0
227 1 1 44.2 80.60000000000001 143.0 0 0 0
228 1 1 44.2 78.0 140.4 0 0 0
229 1 1 41.6 80.60000000000001 140.4 0 0 0
230 1 1 39.0 78.0 140.4 0 0 0
231 1 1 36.4 80.60000000000001 143.0 0 0 0
232 1 1 39.0 83.2 143.0 0 0 0
233 1 1 36.4 83.2 143.0 0 0 0
234 1 1 33.800000000000004 83.2 143.0 0 0 0
235 1 1 31.200000000000003 83.2 143.0 0 0 0
236 1 1 28.6 83.2 143.0 0 0 0
237 1 1 28.6 85.8 143.0 0 0 0
238 1 1 28.6 88.4 140.4 0 0 0
239 1 1 28.6 85.8 140.4 0 0 0
240 1 1 26.0 88.4 140.4 0 0 0
241 1 1 28.6 88.4 143.0 0 0 0
242 1 1 26.0 91.0 145.6 0 0 0
243 1 1 23.400000000000002 88.4 145.6 0 0 0
244 1 1 26.0 85.8 148.20000000000002 0 0 0
245 1 1 23.400000000000002 83.2 150.8 0 0 0
246 1 1 20.8 83.2 148.20000000000002 0 0 0
247 1 1 18.2 83.2 150.8 0 0 0
248 1 1 20.8 80.60000000000001 148.20000000000002 0 0 0
249 1 1 23.400000000000002 78.0 145.6 0 0 0
250 1 1 26.0 80.60000000000001 143.0 0 0 0
251 1 1 23.400000000000002 80.60000000000001 140.4 0 0 0
252 1 1 26.0 80.60000000000001 137.8 0 0 0
253 1 1 28.6 83.2 135.20000000000002 0 0 0
254 1 1 26.0 83.2 137.8 0 0 0
255 1 1 26.0 85.8 140.4 0 0 0
256 1 1 28.6 83.2 137.8 0 0 0
257 1 1 28.6 85.8 137.8 0 0 0
258 1 1 26.0 83.2 135.20000000000002 0 0 0
259 1 1 23.400000000000002 85.8 132.6 0 0 0
260 1 1 23.400000000000002 83.2 132.6 0 0 0
261 1 1 20.8 83.2 132.6 0 0 0
262 1 1 18.2 85.8 135.20000000000002 0 0 0
263 1 1 20.8 88.4 137.8 0 0 0
264 1 1 20.8 88.4 140.4 0 0 0
265 1 1 20.8 91.0 137.8 0 0 0
266 1 1 20.8 91.0 135.20000000000002 0 0 0
267 1 1 23.400000000000002 91.0 132.6 0 0 0
268 1 1 23.400000000000002 91.0 135.20000000000002 0 0 0
269 1 1 26.0 88.4 132.6 0 0 0
270 1 1 23.400000000000002 85.8 135.20000000000002 0 0 0
271 1 1 23.400000000000002 88.4 132.6 0 0 0
272 1 1 26.0 91.0 130.0 0 0 0
273 1 1 26.0 88.4 127.4 0 0 0
274 1 1 26.0 85.8 127.4 0 0 0
275 1 1 28.6 83.2 130.0 0 0 0
276 1 1 26.0 83.2 127.4 0 0 0
277 1 1 23.400000000000002 80.60000000000001 124.80000000000001 0 0 0
278 1 1 23.400000000000002 83.2 127.4 0 0 0
279 1 1 23.400000000000002 85.8 127.4 0 0 0
280 1 1 23.400000000000002 83.2 124.80000000000001 0 0 0
281 1 1 26.0 83.2 124.80000000000001 0 0 0
282 1 1 28.6 80.60000000000001 122.2 0 0 0
283 1 1 31.200000000000003 80.60000000000001 122.2 0 0 0
284 1 1 31.200000000000003 80.60000000000001 124.80000000000001 0 0 0
285 1 1 28.6 83.2 124.80000000000001 0 0 0
286 1 1 28.6 83.2 122.2 0 0 0
287 1 1 31.200000000000003 80.60000000000001 119.60000000000001 0 0 0
288 1 1 33.800000000000004 83.2 117.0 0 0 0
289 1 1 33.800000000000004 80.60000000000001 119.60000000000001 0 0 0
290 1 1 33.800000000000004 78.0 122.2 0 0 0
291 1 1 36.4 75.4 124.80000000000001 0 0 0
292 1 1 39.0 78.0 124.80000000000001 0 0 0
293 1 1 41.6 75.4 127.4 0 0 0
294 1 1 41.6 72.8 124.80000000000001 0 0 0
295 1 1 41.6 72.8 122.2 0 0 0
296 1 1 44.2 72.8 124.80000000000001 0 0 0
297 1 1 44.2 72.8 127.4 0 0 0
298 1 1 44.2 70.2 124.80000000000001 0 0 0
299 1 1 46.800000000000004 72.8 122.2 0 0 0
300 1 1 44.2 75.4 119.60000000000001 0 0 0
301 1 1 299.0 208.0 197.6 0 0 0
302 1 1 299.0 205.4 197.6 0 0 0
303 1 1 296.40000000000003 205.4 195.0 0 0 0
304 1 1 299.0 202.8 195.0 0 0 0
305 1 1 296.40000000000003 200.20000000000002 197.6 0 0 0
306 1 1 293.8 197.6 197.6 0 0 0
307 1 1 293.8 197.6 195.0 0 0 0
308 1 1 293.8 200.20000000000002 197.6 0 0 0
309 1 1 293.8 197.6 200.20000000000002 0 0 0
310 1 1 296.40000000000003 200.20000000000002 202.8 0 0 0
311 1 1 293.8 202.8 202.8 0 0 0
312 1 1 296.40000000000003 202.8 202.8 0 0 0
313 1 1 293.8 205.4 202.8 0 0 0
314 1 1 291.2 202.8 205.4 0 0 0
315 1 1 291.2 202.8 202.8 0 0 0
316 1 1 291.2 205.4 202.8 0 0 0
317 1 1 293.8 208.0 202.8 0 0 0
318 1 1 296.40000000000003 205.4 205.4 0 0 0
319 1 1 299.0 208.0 202.8 0 0 0
320 1 1 299.0 205.4 202.8 0 0 0
321 1 1 301.6 202.8 205.4 0 0 0
322 1 1 301.6 205.4 205.4 0 0 0
323 1 1 304.2 208.0 208.0 0 0 0
324 1 1 306.8 210.6 205.4 0 0 0
325 1 1 304.2 213.20000000000002 202.8 0 0 0
326 1 1 304.2 210.6 205.4 0 0 0
327 1 1 301.6 210.6 205.4 0 0 0
328 1 1 299.0 208.0 205.4 0 0 0
329 1 1 301.6 210.6 208.0 0 0 0
330 1 1 304.2 213.20000000000002 210.6 0 0 0
331 1 1 301.6 210.6 210.6 0 0 0
332 1 1 299.0 213.20000000000002 208.0 0 0 0
333 1 1 296.40000000000003 210.6 210.6 0 0 0
334 1 1 293.8 208.0 208.0 0 0 0
335 1 1 293.8 205.4 205.4 0 0 0
336 1 1 296.40000000000003 205.4 208.0 0 0 0
337 1 1 299.0 208.0 208.0 0 0 0
338 1 1 301.6 208.0 210.6 0 0 0
339 1 1 299.0 205.4 208.0 0 0 0
340 1 1 296.40000000000003 202.8 210.6 0 0 0
341 1 1 293.8 205.4 210.6 0 0 0
342 1 1 293.8 205.4 208.0 0 0 0
343 1 1 291.2 202.8 210.6 0 0 0
344 1 1 291.2 202.8 208.0 0 0 0
345 1 1 291.2 200.20000000000002 210.6 0 0 0
346 1 1 288.6 202.8 210.6 0 0 0
347 1 1 286.0 200.20000000000002 208.0 0 0 0
348 1 1 283.40000000000003 202.8 210.6 0 0 0
349 1 1 280.8 202.8 208.0 0 0 0
350 1 1 283.40000000000003 205.4 208.0 0 0 0
351 1 1 286.0 202.8 210.6 0 0 0
352 1 1 283.40000000000003 202.8 213.20000000000002 0 0 0
353 1 1 283.40000000000003 200.20000000000002 215.8 0 0 0
354 1 1 283.40000000000003 200.20000000000002 213.20000000000002 0 0 0
355 1 1 280.8 197.6 213.20000000000002 0 0 0
356 1 1 280.8 200.20000000000002 210.6 0 0 0
357 1 1 283.40000000000003 200.20000000000002 210.6 0 0 0
358 1 1 286.0 200.20000000000002 213.20000000000002 0 0 0
359 1 1 283.40000000000003 202.8 215.8 0 0 0
360 1 1 283.40000000000003 205.4 218.4 0 0 0
361 1 1 280.8 205.4 215.8 0 0 0
362 1 1 283.40000000000003 208.0 215.8 0 0 0
363 1 1 283.40000000000003 208.0 218.4 0 0 0
364 1 1 283.40000000000003 210.6 218.4 0 0 0
365 1 1 283.40000000000003 208.0 221.0 0 0 0
366 1 1 280.8 205.4 218.4 0 0 0
367 1 1 278.2 202.8 218.4 0 0 0
368 1 1 280.8 200.20000000000002 221.0 0 0 0
369 1 1 283.40000000000003 197.6 221.0 0 0 0
370 1 1 283.40000000000003 195.0 218.4 0 0 0
371 1 1 283.40000000000003 197.6 218.4 0 0 0
372 1 1 280.8 200.20000000000002 218.4 0 0 0
373 1 1 278.2 197.6 221.0 0 0 0
374 1 1 275.6 195.0 218.4 0 0 0
375 1 1 273.0 197.6 215.8 0 0 0
376 1 1 275.6 197.6 215.8 0 0 0
377 1 1 275.6 197.6 213.20000000000002 0 0 0
378 1 1 273.0 195.0 215.8 0 0 0
379 1 1 273.0 192.4 215.8 0 0 0
380 1 1 273.0 189.8 218.4 0 0 0
381 1 1 270.40000000000003 189.8 215.8 0 0 0
382 1 1 267.8 192.4 218.4 0 0 0
383 1 1 265.2 192.4 221.0 0 0 0
384 1 1 262.6 189.8 223.6 0 0 0
385 1 1 265.2 189.8 221.0 0 0 0
386 1 1 267.8 187.20000000000002 218.4 0 0 0
387 1 1 267.8 189.8 215.8 0 0 0
388 1 1 267.8 192.4 213.20000000000002 0 0 0
389 1 1 270.40000000000003 189.8 213.20000000000002 0 0 0
390 1 1 267.8 192.4 210.6 0 0 0
391 1 1 270.40000000000003 195.0 213.20000000000002 0 0 0
392 1 1 267.8 195.0 215.8 0 0 0
393 1 1 270.40000000000003 192.4 215.8 0 0 0
394 1 1 267.8 189.8 218.4 0 0 0
395 1 1 265.2 192.4 218.4 0 0 0
396 1 1 262.6 192.4 215.8 0 0 0
397 1 1 262.6 195.0 218.4 0 0 0
398 1 1 265.2 197.6 215.8 0 0 0
399 1 1 262.6 195.0 215.8 0 0 0
400 1 1 265.2 192.4 213.20000000000002 0 0 0
401 1 1 187.20000000000002 93.60000000000001 288.6 0 0 0
402 1 1 184.6 96.2 286.0 0 0 0
403 1 1 182.0 93.60000000000001 286.0 0 0 0
404 1 1 184.6 91.0 288.6 0 0 0
405 1 1 182.0 88.4 286.0 0 0 0
406 1 1 184.6 85.8 286.0 0 0 0
407 1 1 182.0 88.4 283.40000000000003 0 0 0
408 1 1 184.6 85.8 283.40000000000003 0 0 0
409 1 1 187.20000000000002 85.8 283.40000000000003 0 0 0
410 1 1 184.6 83.2 286.0 0 0 0
411 1 1 182.0 85.8 288.6 0 0 0
412 1 1 182.0 88.4 288.6 0 0 0
413 1 1 184.6 88.4 286.0 0 0 0
414 1 1 182.0 85.8 286.0 0 0 0
415 1 1 184.6 83.2 283.40000000000003 0 0 0
416 1 1 182.0 85.8 280.8 0 0 0
417 1 1 179.4 83.2 278.2 0 0 0
418 1 1 182.0 83.2 280.8 0 0 0
419 1 1 182.0 85.8 278.2 0 0 0
420 1 1 179.4 88.4 275.6 0 0 0
421 1 1 182.0 88.4 275.6 0 0 0
422 1 1 184.6 88.4 273.0 0 0 0
423 1 1 187.20000000000002 85.8 270.40000000000003 0 0 0
424 1 1 184.6 88.4 267.8 0 0 0
425 1 1 184.6 91.0 267.8 0 0 0
426 1 1 182.0 93.60000000000001 265.2 0 0 0
427 1 1 179.4 96.2 265.2 0 0 0
428 1 1 182.0 98.8 262.6 0 0 0
429 1 1 184.6 101.4 262.6 0 0 0
430 1 1 184.6 104.0 265.2 0 0 0
431 1 1 184.6 106.60000000000001 267.8 0 0 0
432 1 1 184.6 104.0 270.40000000000003 0 0 0
433 1 1 184.6 104.0 267.8 0 0 0
434 1 1 182.0 106.60000000000001 267.8 0 0 0
435 1 1 184.6 109.2 265.2 0 0 0
436 1 1 187.20000000000002 106.60000000000001 262.6 0 0 0
437 1 1 184.6 106.60000000000001 265.2 0 0 0
438 1 1 187.20000000000002 104.0 267.8 0 0 0
439 1 1 189.8 101.4 270.40000000000003 0 0 0
440 1 1 187.20000000000002 101.4 273.0 0 0 0
441 1 1 187.20000000000002 101.4 270.40000000000003 0 0 0
442 1 1 187.20000000000002 104.0 270.40000000000003 0 0 0
443 1 1 187.20000000000002 106.60000000000001 270.40000000000003 0 0 0
444 1 1 187.20000000000002 109.2 270.40000000000003 0 0 0
445 1 1 187.20000000000002 111.8 270.40000000000003 0 0 0
446 1 1 189.8 111.8 270.40000000000003 0 0 0
447 1 1 189.8 111.8 273.0 0 0 0
448 1 1 192.4 109.2 270.40000000000003 0 0 0
449 1 1 189.8 111.8 267.8 0 0 0
450 1 1 187.20000000000002 114.4 267.8 0 0 0
451 1 1 189.8 114.4 270.40000000000003 0 0 0
452 1 1 187.20000000000002 111.8 273.0 0 0 0
453 1 1 187.20000000000002 111.8 275.6 0 0 0
454 1 1 189.8 114.4 278.2 0 0 0
455 1 1 192.4 117.0 275.6 0 0 0
456 1 1 192.4 119.60000000000001 275.6 0 0 0
457 1 1 195.0 119.60000000000001 273.0 0 0 0
458 1 1 197.6 117.0 270.40000000000003 0 0 0
459 1 1 197.6 119.60000000000001 267.8 0 0 0
460 1 1 195.0 122.2 267.8 0 0 0
461 1 1 197.6 122.2 267.8 0 0 0
462 1 1 195.0 124.80000000000001 265.2 0 0 0
463 1 1 192.4 122.2 267.8 0 0 0
464 1 1 192.4 119.60000000000001 267.8 0 0 0
465 1 1 195.0 117.0 270.40000000000003 0 0 0
466 1 1 197.6 117.0 267.8 0 0 0
467 1 1 195.0 117.0 265.2 0 0 0
468 1 1 195.0 119.60000000000001 262.6 0 0 0
469 1 1 195.0 122.2 262.6 0 0 0
470 1 1 192.4 122.2 262.6 0 0 0
471 1 1 189.8 124.80000000000001 260.0 0 0 0
472 1 1 187.20000000000002 127.4 257.40000000000003 0 0 0
473 1 1 187.20000000000002 127.4 254.8 0 0 0
474 1 1 187.20000000000002 130.0 252.20000000000002 0 0 0
475 1 1 189.8 132.6 249.60000000000002 0 0 0
476 1 1 192.4 130.0 249.60000000000002 0 0 0
477 1 1 189.8 127.4 249.60000000000002 0 0 0
478 1 1 192.4 130.0 252.20000000000002 0 0 0
479 1 1 195.0 130.0 249.60000000000002 0 0 0
480 1 1 195.0 132.6 247.0 0 0 0
481 1 1 192.4 135.20000000000002 244.4 0 0 0
482 1 1 189.8 132.6 244.4 0 0 0
483 1 1 189.8 130.0 247.0 0 0 0
484 1 1 187.20000000000002 127.4 244.4 0 0 0
485 1 1 187.20000000000002 130.0 244.4 0 0 0
486 1 1 184.6 127.4 244.4 0 0 0
487 1 1 184.6 130.0 241.8 0 0 0
488 1 1 187.20000000000002 127.4 239.20000000000002 0 0 0
489 1 1 189.8 130.0 236.6 0 0 0
490 1 1 187.20000000000002 132.6 239.20000000000002 0 0 0
491 1 1 187.20000000000002 130.0 239.20000000000002 0 0 0
492 1 1 189.8 132.6 241.8 0 0 0
493 1 1 192.4 130.0 241.8 0 0 0
494 1 1 192.4 132.6 239.20000000000002 0 0 0
495 1 1 195.0 135.20000000000002 236.6 0 0 0
496 1 1 195.0 135.20000000000002 239.20000000000002 0 0 0
497 1 1 192.4 137.8 239.20000000000002 0 0 0
498 1 1 195.0 137.8 236.6 0 0 0
499 1 1 197.6 140.4 239.20000000000002 0 0 0
500 1 1 197.6 137.8 236.6 0 0 0
501 1 1 145.6 184.6 5.2 0 0 0
502 1 1 148.20000000000002 187.20000000000002 2.6 0 0 0
503 1 1 148.20000000000002 184.6 5.2 0 0 0
504 1 1 145.6 182.0 7.800000000000001 0 0 0
505 1 1 145.6 179.4 7.800000000000001 0 0 0
506 1 1 145.6 176.8 10.4 0 0 0
507 1 1 145.6 174.20000000000002 10.4 0 0 0
508 1 1 143.0 176.8 10.4 0 0 0
509 1 1 140.4 176.8 10.4 0 0 0
510 1 1 143.0 179.4 13.0 0 0 0
511 1 1 140.4 176.8 13.0 0 0 0
512 1 1 143.0 176.8 13.0 0 0 0
513 1 1 140.4 179.4 15.600000000000001 0 0 0
514 1 1 137.8 182.0 15.600000000000001 0 0 0
515 1 1 140.4 184.6 15.600000000000001 0 0 0
516 1 1 137.8 184.6 18.2 0 0 0
517 1 1 137.8 184.6 15.600000000000001 0 0 0
518 1 1 140.4 182.0 13.0 0 0 0
519 1 1 143.0 182.0 15.600000000000001 0 0 0
520 1 1 143.0 182.0 18.2 0 0 0
521 1 1 143.0 179.4 20.8 0 0 0
522 1 1 143.0 179.4 23.400000000000002 0 0 0
523 1 1 145.6 176.8 20.8 0 0 0
524 1 1 143.0 174.20000000000002 18.2 0 0 0
525 1 1 145.6 174.20000000000002 15.600000000000001 0 0 0
526 1 1 143.0 176.8 15.600000000000001 0 0 0
527 1 1 140.4 174.20000000000002 18.2 0 0 0
528 1 1 137.8 176.8 15.600000000000001 0 0 0
529 1 1 140.4 176.8 18.2 0 0 0
530 1 1 140.4 174.20000000000002 15.600000000000001 0 0 0
531 1 1 137.8 174.20000000000002 13.0 0 0 0
532 1 1 137.8 171.6 15.600000000000001 0 0 0
533 1 1 137.8 174.20000000000002 15.600000000000001 0 0 0
534 1 1 135.20000000000002 171.6 18.2 0 0 0
535 1 1 132.6 169.0 20.8 0 0 0
536 1 1 130.0 166.4 20.8 0 0 0
537 1 1 132.6 169.0 23.400000000000002 0 0 0
538 1 1 130.0 169.0 26.0 0 0 0
539 1 1 132.6 166.4 23.400000000000002 0 0 0
540 1 1 135.20000000000002 169.0 20.8 0 0 0
541 1 1 135.20000000000002 166.4 23.400000000000002 0 0 0
542 1 1 137.8 166.4 26.0 0 0 0
543 1 1 135.20000000000002 163.8 23.400000000000002 0 0 0
544 1 1 137.8 161.20000000000002 23.400000000000002 0 0 0
545 1 1 137.8 163.8 23.400000000000002 0 0 0
546 1 1 135.20000000000002 166.4 26.0 0 0 0
547 1 1 137.8 169.0 26.0 0 0 0
548 1 1 137.8 171.6 28.6 0 0 0
549 1 1 137.8 174.20000000000002 28.6 0 0 0
550 1 1 140.4 174.20000000000002 26.0 0 0 0
551 1 1 140.4 176.8 23.400000000000002 0 0 0
552 1 1 143.0 174.20000000000002 26.0 0 0 0
553 1 1 140.4 176.8 28.6 0 0 0
554 1 1 137.8 174.20000000000002 31.200000000000003 0 0 0
555 1 1 135.20000000000002 171.6 31.200000000000003 0 0 0
556 1 1 137.8 174.20000000000002 33.800000000000004 0 0 0
557 1 1 140.4 176.8 33.800000000000004 0 0 0
558 1 1 143.0 176.8 33.800000000000004 0 0 0
559 1 1 140.4 179.4 36.4 0 0 0
560 1 1 137.8 179.4 39.0 0 0 0
561 1 1 135.20000000000002 176.8 41.6 0 0 0
562 1 1 137.8 179.4 41.6 0 0 0
563 1 1 140.4 179.4 41.6 0 0 0
564 1 1 137.8 176.8 41.6 0 0 0
565 1 1 137.8 176.8 39.0 0 0 0
566 1 1 137.8 174.20000000000002 41.6 0 0 0
567 1 1 135.20000000000002 174.20000000000002 41.6 0 0 0
568 1 1 135.20000000000002 171.6 41.6 0 0 0
569 1 1 135.20000000000002 171.6 44.2 0 0 0
570 1 1 135.20000000000002 174.20000000000002 44.2 0 0 0
571 1 1 132.6 171.6 41.6 0 0 0
572 1 1 132.6 174.20000000000002 44.2 0 0 0
573 1 1 132.6 171.6 44.2 0 0 0
574 1 1 130.0 174.20000000000002 46.800000000000004 0 0 0
575 1 1 130.0 174.20000000000002 44.2 0 0 0
576 1 1 130.0 176.8 41.6 0 0 0
577 1 1 132.6 179.4 39.0 0 0 0
578 1 1 132.6 182.0 41.6 0 0 0
579 1 1 135.20000000000002 182.0 44.2 0 0 0
580 1 1 137.8 184.6 41.6 0 0 0
581 1 1 140.4 182.0 39.0 0 0 0
582 1 1 143.0 182.0 36.4 0 0 0
583 1 1 140.4 184.6 33.800000000000004 0 0 0
584 1 1 140.4 187.20000000000002 31.200000000000003 0 0 0
585 1 1 143.0 189.8 31.200000000000003 0 0 0
586 1 1 143.0 192.4 28.6 0 0 0
587 1 1 143.0 189.8 28.6 0 0 0
588 1 1 145.6 192.4 26.0 0 0 0
589 1 1 148.20000000000002 192.4 26.0 0 0 0
590 1 1 145.6 192.4 23.400000000000002 0 0 0
591 1 1 143.0 192.4 26.0 0 0 0
592 1 1 140.4 195.0 23.400000000000002 0 0 0
593 1 1 143.0 195.0 20.8 0 0 0
594 1 1 140.4 195.0 18.2 0 0 0
595 1 1 143.0 197.6 20.8 0 0 0
596 1 1 143.0 200.20000000000002 23.400000000000002 0 0 0
597 1 1 140.4 197.6 20.8 0 0 0
598 1 1 143.0 195.0 18.2 0 0 0
599 1 1 140.4 195.0 15.600000000000001 0 0 0
600 1 1 137.8 195.0 18.2 0 0 0
601 1 1 101.4 234.0 36.4 0 0 0
602 1 1 101.4 231.4 36.4 0 0 0
603 1 1 98.8 231.4 36.4 0 0 0
604 1 1 96.2 231.4 33.800000000000004 0 0 0
605 1 1 98.8 228.8 36.4 0 0 0
606 1 1 101.4 228.8 33.800000000000004 0 0 0
607 1 1 101.4 231.4 31.200000000000003 0 0 0
608 1 1 98.8 231.4 28.6 0 0 0
609 1 1 96.2 234.0 26.0 0 0 0
610 1 1 98.8 236.6 28.6 0 0 0
611 1 1 96.2 239.20000000000002 28.6 0 0 0
612 1 1 93.60000000000001 236.6 28.6 0 0 0
613 1 1 91.0 234.0 28.6 0 0 0
614 1 1 93.60000000000001 234.0 28.6 0 0 0
615 1 1 91.0 231.4 28.6 0 0 0
616 1 1 91.0 234.0 31.200000000000003 0 0 0
617 1 1 88.4 236.6 31.200000000000003 0 0 0
618 1 1 85.8 236.6 28.6 0 0 0
619 1 1 88.4 234.0 31.200000000000003 0 0 0
620 1 1 91.0 231.4 31.200000000000003 0 0 0
621 1 1 88.4 231.4 33.800000000000004 0 0 0
622 1 1 88.4 231.4 31.200000000000003 0 0 0
623 1 1 85.8 231.4 31.200000000000003 0 0 0
624 1 1 83.2 231.4 31.200000000000003 0 0 0
625 1 1 85.8 228.8 31.200000000000003 0 0 0
626 1 1 85.8 226.20000000000002 33.800000000000004 0 0 0
627 1 1 85.8 223.6 33.800000000000004 0 0 0
628 1 1 83.2 221.0 36.4 0 0 0
629 1 1 85.8 223.6 39.0 0 0 0
630 1 1 83.2 223.6 41.6 0 0 0
631 1 1 85.8 221.0 44.2 0 0 0
632 1 1 83.2 218.4 46.800000000000004 0 0 0
633 1 1 83.2 221.0 46.800000000000004 0 0 0
634 1 1 83.2 223.6 49.4 0 0 0
635 1 1 85.8 223.6 46.800000000000004 0 0 0
636 1 1 83.2 223.6 44.2 0 0 0
637 1 1 80.60000000000001 223.6 46.800000000000004 0 0 0
638 1 1 80.60000000000001 221.0 44.2 0 0 0
639 1 1 83.2 223.6 46.800000000000004 0 0 0
640 1 1 80.60000000000001 221.0 49.4 0 0 0
641 1 1 83.2 221.0 52.0 0 0 0
642 1 1 80.60000000000001 221.0 54.6 0 0 0
643 1 1 78.0 223.6 54.6 0 0 0
644 1 1 80.60000000000001 223.6 57.2 0 0 0
645 1 1 80.60000000000001 223.6 59.800000000000004 0 0 0
646 1 1 78.0 221.0 57.2 0 0 0
647 1 1 78.0 223.6 59.800000000000004 0 0 0
648 1 1 75.4 226.20000000000002 57.2 0 0 0
649 1 1 75.4 223.6 54.6 0 0 0
650 1 1 72.8 221.0 54.6 0 0 0
651 1 1 72.8 218.4 54.6 0 0 0
652 1 1 70.2 221.0 54.6 0 0 0
653 1 1 67.60000000000001 221.0 54.6 0 0 0
654 1 1 70.2 218.4 57.2 0 0 0
655 1 1 67.60000000000001 215.8 59.800000000000004 0 0 0
656 1 1 67.60000000000001 218.4 57.2 0 0 0
657 1 1 65.0 221.0 57.2 0 0 0
658 1 1 65.0 218.4 57.2 0 0 0
659 1 1 62.400000000000006 218.4 54.6 0 0 0
660 1 1 59.800000000000004 215.8 54.6 0 0 0
661 1 1 59.800000000000004 218.4 57.2 0 0 0
662 1 1 59.800000000000004 215.8 59.800000000000004 0 0 0
663 1 1 57.2 218.4 62.400000000000006 0 0 0
664 1 1 59.800000000000004 221.0 65.0 0 0 0
665 1 1 57.2 218.4 65.0 0 0 0
666 1 1 59.800000000000004 215.8 62.400000000000006 0 0 0
667 1 1 57.2 215.8 59.800000000000004 0 0 0
668 1 1 57.2 218.4 57.2 0 0 0
669 1 1 54.6 221.0 54.6 0 0 0
670 1 1 52.0 221.0 54.6 0 0 0
671 1 1 49.4 223.6 57.2 0 0 0
672 1 1 49.4 226.20000000000002 57.2 0 0 0
673 1 1 52.0 228.8 59.800000000000004 0 0 0
674 1 1 54.6 226.20000000000002 62.400000000000006 0 0 0
675 1 1 57.2 223.6 62.400000000000006 0 0 0
676 1 1 57.2 223.6 65.0 0 0 0
677 1 1 59.800000000000004 226.20000000000002 67.60000000000001 0 0 0
678 1 1 57.2 223.6 67.60000000000001 0 0 0
679 1 1 57.2 226.20000000000002 70.2 0 0 0
680 1 1 59.800000000000004 226.20000000000002 72.8 0 0 0
681 1 1 62.400000000000006 228.8 70.2 0 0 0
682 1 1 59.800000000000004 228.8 72.8 0 0 0
683 1 1 59.800000000000004 228.8 70.2 0 0 0
684 1 1 57.2 228.8 72.8 0 0 0
685 1 1 59.800000000000004 228.8 75.4 0 0 0
686 1 1 62.400000000000006 231.4 72.8 0 0 0
687 1 1 62.400000000000006 228.8 72.8 0 0 0
688 1 1 65.0 226.20000000000002 72.8 0 0 0
689 1 1 67.60000000000001 228.8 70.2 0 0 0
690 1 1 67.60000000000001 231.4 72.8 0 0 0
691 1 1 65.0 231.4 70.2 0 0 0
692 1 1 67.60000000000001 228.8 72.8 0 0 0
693 1 1 70.2 226.20000000000002 72.8 0 0 0
694 1 1 70.2 228.8 75.4 0 0 0
695 1 1 72.8 231.4 75.4 0 0 0
696 1 1 72.8 231.4 78.0 0 0 0
697 1 1 70.2 234.0 80.60000000000001 0 0 0
698 1 1 67.60000000000001 234.0 78.0 0 0 0
699 1 1 67.60000000000001 236.6 75.4 0 0 0
700 1 1 70.2 236.6 72.8 0 0 0
701 1 1 278.2 26.0 46.800000000000004 0 0 0
702 1 1 278.2 26.0 49.4 0 0 0
703 1 1 275.6 28.6 49.4 0 0 0
704 1 1 275.6 28.6 52.0 0 0 0
705 1 1 278.2 28.6 49.4 0 0 0
706 1 1 280.8 26.0 52.0 0 0 0
707 1 1 280.8 26.0 49.4 0 0 0
708 1 1 278.2 28.6 46.800000000000004 0 0 0
709 1 1 278.2 28.6 44.2 0 0 0
710 1 1 278.2 31.200000000000003 44.2 0 0 0
711 1 1 280.8 33.800000000000004 46.800000000000004 0 0 0
712 1 1 278.2 36.4 44.2 0 0 0
713 1 1 278.2 39.0 46.800000000000004 0 0 0
714 1 1 275.6 41.6 44.2 0 0 0
715 1 1 275.6 44.2 46.800000000000004 0 0 0
716 1 1 273.0 46.800000000000004 49.4 0 0 0
717 1 1 275.6 46.800000000000004 49.4 0 0 0
718 1 1 275.6 49.4 49.4 0 0 0
719 1 1 275.6 52.0 52.0 0 0 0
720 1 1 275.6 52.0 54.6 0 0 0
721 1 1 278.2 49.4 52.0 0 0 0
722 1 1 280.8 49.4 49.4 0 0 0
723 1 1 280.8 52.0 46.800000000000004 0 0 0
724 1 1 283.40000000000003 52.0 44.2 0 0 0
725 1 1 280.8 49.4 46.800000000000004 0 0 0
726 1 1 278.2 49.4 46.800000000000004 0 0 0
727 1 1 275.6 46.800000000000004 44.2 0 0 0
728 1 1 273.0 46.800000000000004 44.2 0 0 0
729 1 1 270.40000000000003 49.4 46.800000000000004 0 0 0
730 1 1 267.8 46.800000000000004 46.800000000000004 0 0 0
731 1 1 265.2 44.2 46.800000000000004 0 0 0
732 1 1 262.6 41.6 44.2 0 0 0
733 1 1 265.2 41.6 44.2 0 0 0
734 1 1 267.8 39.0 44.2 0 0 0
735 1 1 270.40000000000003 36.4 46.800000000000004 0 0 0
736 1 1 267.8 33.800000000000004 44.2 0 0 0