LAMMPS data file via write_data, version 7 Feb 2024, timestep = 50000, units = real

10000 atoms
1 atom types
9990 bonds
1 bond types
9980 angles
1 angle types

108.40667381808461 194.0933261819108 xlo xhi
108.40667381808461 194.0933261819108 ylo yhi
108.40667381808461 194.0933261819108 zlo zhi

Masses

1 28

Pair Coeffs # lj/cut

1 0.25 4.28

Bond Coeffs # harmonic

1 18 2.5

Angle Coeffs # harmonic

1 2.06 168

Atoms # angle

7537 1 1 110.77631254639962 109.39714203291368 111.30660931523074 1 0 1
7923 1 1 115.14599865023118 112.14196863637994 119.61029561049716 1 0 1
7924 1 1 116.96756609412185 112.39589177817717 121.61832217503887 1 0 1
7832 1 1 118.65161260168519 120.12722778470086 116.4495589451787 1 0 1
7922 1 1 112.9512834890843 112.02420384099618 117.91810029645748 1 0 1
7921 1 1 110.6436335497377 112.47238635667323 117.11632297163986 1 0 1
7835 1 1 113.97921202651729 122.35897771576506 118.08464753494181 1 0 1
7833 1 1 116.26492279068205 119.68949566738635 116.09348063408369 1 0 1
7925 1 1 118.85563667693009 114.10893386290884 121.93827026386617 1 0 1
1327 1 1 119.0237781929847 118.51614493266341 112.50992271449886 0 1 1
1325 1 1 117.07727032054702 121.79379836999016 112.36201405769445 0 1 1
1328 1 1 119.14413882607646 115.86434965922848 112.89648666390511 0 1 1
1326 1 1 119.18676757760291 121.15100804225585 112.6066795748568 0 1 1
1324 1 1 115.47438326210263 122.14792499608293 110.4810466749413 0 1 1
1331 1 1 119.71031075193187 109.2082256485266 113.54438225576797 0 1 1
1596 1 1 112.24043510310312 108.48810938949389 120.65523783975642 0 1 0
1595 1 1 111.52556599085715 110.38554761000863 121.98890468924473 0 1 0
6841 1 1 110.33057069401798 117.05527418778051 116.18270936379426 1 1 0
6842 1 1 109.38448727373509 119.29129508159758 117.41980414651022 1 1 0
1323 1 1 113.46894837292864 120.7033607611262 109.47313839309149 0 1 1
7834 1 1 114.50577947273517 119.90764336646626 117.90994135810097 1 0 1
7534 1 1 115.44756587259756 108.82207686444431 116.17726259607477 1 0 1
1317 1 1 117.03483009553666 110.06631865635424 108.74835716103856 0 1 1
1330 1 1 120.23752011691516 111.49296197703849 114.31916451130927 0 1 1
6836 1 1 116.8303018166282 115.61111985108904 117.11831909971718 1 1 0
6837 1 1 117.26268023126678 113.28958017695447 116.02157205806891 1 1 0
6838 1 1 115.03768200730933 112.92360619524348 114.50683363558291 1 1 0
6839 1 1 113.4009922371238 114.26434782708911 113.4304300885805 1 1 0
7839 1 1 109.49426194674999 122.42940545175261 109.06646590368304 1 0 1
6834 1 1 113.10874270750332 116.02400245936624 119.80106492406792 1 1 0
6833 1 1 111.00690737870723 115.21068662339289 120.51390347745476 1 1 0
6844 1 1 109.57399583256525 122.02974360255172 121.54045208237143 1 1 0
6835 1 1 114.75315067527146 115.8230796694958 118.34910399748557 1 1 0
6832 1 1 109.13129833147207 115.74478974446761 121.86682015157392 1 1 0
6840 1 1 111.82402841965842 115.7854023757009 114.65419372090497 1 1 0
6843 1 1 110.00854675051694 120.71841858018787 119.49972356822536 1 1 0
7533 1 1 117.2400527957432 108.76851336822007 117.38398298280197 1 0 1
1318 1 1 114.72163474825174 110.0934492372621 108.94539833481205 0 1 1
7538 1 1 109.07410432244143 110.04321803237757 109.3987608953358 1 0 1
7532 1 1 118.79708674442931 108.85183480609145 119.33484317636868 1 0 1
1329 1 1 119.78622917926953 113.50906954744956 112.9012809818997 0 1 1
7831 1 1 120.74319310427026 119.97808165693813 118.07344822211697 1 0 1
7830 1 1 121.25756107064699 120.46465529519116 120.37922571472353 1 0 1
7822 1 1 131.85473292176556 118.25640643302452 121.3206383180003 1 0 1
7929 1 1 127.19824253789406 118.61903936361338 120.54254990139529 1 0 1
7928 1 1 125.2185430456656 117.63742792590496 119.65233362645104 1 0 1
7821 1 1 132.56837827349779 118.00465599923383 119.1035793309834 1 0 1
7853 1 1 124.07638031815776 111.89066601156588 110.33839091318033 1 0 1
7927 1 1 123.03425670001799 116.59834227290762 119.88929384838167 1 0 1
7926 1 1 121.0864001087478 114.98044737996294 120.61541840682122 1 0 1
9996 1 1 130.43585880096342 112.25227445837238 117.78420278143561 0 1 0
9995 1 1 129.00790796628115 114.14137732470697 119.34448248587772 0 1 0
8000 1 1 132.26872360160942 113.39468634112343 122.45892343639552 1 0 1
7855 1 1 127.03222465773024 108.85539500989049 111.87859561891167 1 0 1
7528 1 1 128.01530383307883 108.86711452833052 120.06670895557848 1 0 1
7530 1 1 123.71716667130839 109.35906359635652 120.0006263546584 1 0 1
7932 1 1 131.75426829211403 121.86785262279871 117.30538241850704 1 0 1
7930 1 1 127.55640119075 120.61753159190451 118.97674612785906 1 0 1
7931 1 1 129.6740768444479 121.02824804936816 117.77710425018242 1 0 1
7815 1 1 129.57522677434443 119.94535337228893 113.4724825386682 1 0 1
7816 1 1 131.5052649004366 118.84867662357355 112.94318535647992 1 0 1
7814 1 1 127.49660265035492 118.99090478179608 114.14219424952975 1 0 1
7813 1 1 125.32557655447044 117.46161533881038 113.68834829971563 1 0 1
7889 1 1 126.92340062417279 112.95612319768857 115.03861006861725 1 0 1
7890 1 1 128.5573128651222 114.04306470587095 113.20361183677862 1 0 1
7892 1 1 127.47343928910082 116.395892551009 108.65113020128013 1 0 1
7810 1 1 121.9678595124993 119.77084458030852 108.82552052951974 1 0 1
5091 1 1 131.8901617873406 112.88875808794145 108.93504245819904 1 0 1
7888 1 1 125.25168195868832 110.98929296883544 114.97229798681714 1 0 1
5090 1 1 131.62611689849655 110.48622162176665 109.34774529364063 1 0 1
7852 1 1 122.4209669902452 113.16333873803246 108.7958724666142 1 0 1
9994 1 1 128.84560146275135 114.90728281417886 121.54545370531278 0 1 0
9993 1 1 126.58280225864208 114.7650466296749 122.60629823629812 0 1 0
7527 1 1 128.67158199739262 110.83904871595581 121.10976877017883 1 0 1
1348 1 1 132.58157948393776 110.89235115936259 114.04649821559389 0 1 1
7811 1 1 122.82010160854621 118.82796103924653 110.5872611751251 1 0 1
7812 1 1 124.46610234316077 119.04976651717405 112.12579952545484 1 0 1
7531 1 1 121.24702453959095 109.27962289050224 119.9754009919407 1 0 1
7854 1 1 125.86193830281842 109.99783384174621 110.03247406148131 1 0 1
7891 1 1 128.3459411103462 115.07505131952904 110.90953016054415 1 0 1
9997 1 1 132.20669964587023 110.687311535023 118.67529811654956 0 1 0
7887 1 1 123.41912989403971 108.94256365985723 115.2904824743078 1 0 1
96 1 1 142.07483408601638 111.51847768047797 109.31222771124632 0 0 1
1346 1 1 136.90052784640955 113.63450766430002 113.22374990038837 0 1 1
7820 1 1 134.46944885157532 117.64952502652622 117.62290946631457 1 0 1
7999 1 1 134.33932903593742 114.04447197938877 122.09297696566782 1 0 1
7996 1 1 139.34687006593086 118.60744671316775 119.5208473366194 1 0 1
7998 1 1 135.7341473215383 115.93122288597682 121.90674510679953 1 0 1
7997 1 1 137.08502610699998 117.50837766132193 120.32280941016393 1 0 1
7818 1 1 133.60873287884294 116.78840532082775 114.3305242476192 1 0 1
7819 1 1 134.96857458622262 116.04703681318621 116.2500727221154 1 0 1
7995 1 1 140.80885862879953 117.74819264666907 120.97348043860974 1 0 1
9488 1 1 144.64237694467974 117.44982385233847 118.130808836268 0 0 0
9489 1 1 144.87620786043448 115.23324855828342 118.5482353548174 0 0 0
7933 1 1 134.29442091860514 121.88157658940776 118.22800744693247 1 0 1
7934 1 1 136.13355650025068 121.71678355523191 119.93388237125414 1 0 1
7817 1 1 133.0789438439264 117.48545296917898 112.28381796103437 1 0 1
9376 1 1 141.72373249537017 116.84721663870289 113.36087618004052 0 0 0
9474 1 1 140.22617038406648 122.31190244973995 117.35733173015034 0 0 0
9377 1 1 140.79681005029198 117.99865954741581 115.113959293666 0 0 0
9378 1 1 139.8290948260089 119.7980405336002 114.1064841786609 0 0 0
9375 1 1 143.8381080224836 116.19816697613075 113.66495261411224 0 0 0
9379 1 1 138.49974839143883 121.05352688241595 112.61565786909344 0 0 0
1349 1 1 133.67912690884208 108.57278577213802 114.05067813493433 0 1 1
2032 1 1 142.36317534544193 108.49329654567192 118.10673778197423 0 1 0
95 1 1 142.86164418771625 109.3511477306954 109.46633702999465 0 0 1
2053 1 1 142.03694469043165 112.73029616334402 115.56883728203474 0 1 0
2050 1 1 138.8003219565181 110.92507055073672 121.38056375175266 0 1 0
1344 1 1 137.70134502503362 115.87988384019447 109.29910975334178 0 1 1
5095 1 1 136.14929190327354 120.34288541115484 109.26334092217436 1 0 1
2052 1 1 141.32015279905684 112.7123537499313 118.19077899310045 0 1 0
1347 1 1 134.4635889994384 112.47303065590287 113.4451535800472 0 1 1
1345 1 1 137.0667462611186 115.47487517423401 111.54305239257944 0 1 1
9998 1 1 134.16113479564282 109.60691460868541 119.46205887934087 0 1 0
2051 1 1 140.30087679877974 112.65911668509405 120.53453837002651 0 1 0
5096 1 1 135.26450558620525 122.4326241527567 110.40549339625319 1 0 1
2054 1 1 143.82897931984104 112.08534184500736 113.7994151516829 0 1 0
97 1 1 141.92720295504603 114.04013369864937 108.42047904880533 0 0 1
9373 1 1 146.51076304971446 119.40055226333766 114.14232131407637 0 0 0
2246 1 1 156.7112899694904 117.82855741515168 114.44799591778563 0 1 0
2245 1 1 155.63536532144724 119.49362413588808 116.1370109808538 0 1 0
2247 1 1 156.69051783612642 117.38093827751459 112.17418549844429 0 1 0
2244 1 1 155.85624889885526 119.72543815563526 118.82576248752731 0 1 0
2243 1 1 155.97413423433093 121.22521205816084 120.55571929087111 0 1 0
6207 1 1 153.0714549839508 112.0832904913113 122.37584318953301 0 1 0
2065 1 1 156.86770483613174 114.41099085648135 119.50118154922774 0 1 0
1778 1 1 148.83735663909835 112.08858090460896 119.74915522312668 0 1 0
1779 1 1 149.9531896948715 114.25604274126121 119.12195152367387 0 1 0
9374 1 1 145.85826161566092 116.89663447250935 114.35768147046147 0 0 0
2056 1 1 147.24157992720285 109.62272548025078 111.51546130949126 0 1 0
1777 1 1 148.5856562036071 109.74769635937861 120.55398375055671 0 1 0
9487 1 1 145.99093869492913 119.33180613684463 118.36699506723836 0 0 0
9486 1 1 147.50058285440622 121.18684121711239 118.15812224868948 0 0 0
2250 1 1 154.84843007591894 118.83095498219114 108.52864003768819 0 1 0
6209 1 1 153.76442200861266 109.39909875008227 118.92771553259304 0 1 0
9372 1 1 146.07403041532035 121.7569029947287 113.81968035628181 0 0 0
6208 1 1 153.09311422571352 111.51575371738738 120.28706122456815 0 1 0
107 1 1 150.36133540666313 113.30043828292487 113.25583181295674 0 0 1
6210 1 1 155.9288472276408 109.0142249280286 117.11299654491216 0 1 0
9490 1 1 146.39964221604882 115.16106113963923 120.62665431453082 0 0 0
2061 1 1 156.93565287740245 109.36097956552545 112.15885888549674 0 1 0
1781 1 1 151.20550755304114 118.45551681034036 121.417002522399 0 1 0
9494 1 1 146.07987039007327 121.64784710813929 122.22329688779982 0 0 0
104 1 1 151.04230990774712 120.28403228293057 113.87188475947131 0 0 1
1780 1 1 150.645432828502 115.79144079630547 120.98034211249848 0 1 0
106 1 1 151.93393683307065 115.56788895158455 112.5954850975561 0 0 1
2055 1 1 145.1316358511215 110.28067019494593 112.91909682103237 0 1 0
102 1 1 148.57515150314543 119.87080585607065 109.21936174098566 0 0 1
84 1 1 151.16164769134696 114.5690496955839 108.5944185269283 0 0 1
108 1 1 148.53034450261967 113.74798929417528 111.5827858978631 0 0 1
103 1 1 149.62567035818682 120.06155902950606 111.62147556778453 0 0 1
105 1 1 151.50722519379994 118.10204333910556 112.91088769637042 0 0 1
2064 1 1 157.3617048202347 114.198170397801 117.03206133934484 0 1 0
109 1 1 146.94456068912152 114.48109048000987 109.82784484760873 0 0 1
2066 1 1 156.87736205158674 113.25868828594109 121.4520799759167 0 1 0
6813 1 1 161.67824123317712 111.89709583155711 119.65815243661494 0 1 0
6812 1 1 161.0838360554691 113.57345199758723 121.67975341521904 0 1 0
6571 1 1 165.29525243657957 118.17917141861282 114.58767175181679 0 1 0
6573 1 1 168.3548778469939 121.73310986782919 116.44248375489809 0 1 0
6572 1 1 167.3707683814883 119.3974346309333 115.99489435693438 0 1 0
6808 1 1 162.18590519206552 121.754497700696 122.45607857956777 0 1 0
6598 1 1 167.7635297181424 114.36212287016514 119.4222671721731 0 1 0
6597 1 1 166.23760736582588 113.18783406375427 120.74253368282369 0 1 0
6599 1 1 167.5393594121535 114.03647871472381 116.96156397207984 0 1 0
2063 1 1 158.56346736350469 112.98121335824545 115.17864104553604 0 1 0
2248 1 1 158.00413271577378 117.86559878739324 110.08011360707059 0 1 0
6570 1 1 164.00983548789137 116.32052208993906 114.29723885797297 0 1 0
2062 1 1 158.0707897538678 111.33486622829948 113.42331207946393 0 1 0
6799 1 1 158.96302992491496 121.67129824754653 116.18509098345596 0 1 0
6794 1 1 165.79576240072578 118.24317922718217 121.53999685813694 0 1 0
6793 1 1 167.12661689264263 120.22240913593387 122.09504128130438 0 1 0
6792 1 1 168.8486957710407 121.08959415367809 120.62633089784214 0 1 0
6797 1 1 160.99758529195066 117.12906883185737 117.48409506777638 0 1 0
6569 1 1 163.968410535839 114.03545409650678 114.43605464751246 0 1 0
5810 1 1 163.65956622463247 120.12882897551059 111.2435515772756 0 0 1
5809 1 1 165.99584472921498 121.84802521134759 111.27851194893242 0 0 1
63 1 1 160.83305795429732 108.6148803219058 108.89621425738889 0 0 1
6796 1 1 162.66360109590036 116.58968605020165 118.85049428606465 0 1 0
6798 1 1 160.25854159435508 119.3057020435985 116.25995469274062 0 1 0
6795 1 1 164.44114623306046 117.66038635130748 120.17600339168388 0 1 0
62 1 1 162.4909021440434 110.66791569918351 109.4423928966188 0 0 1
5808 1 1 168.43511476504978 121.87708689652887 112.30524863098833 0 0 1
6567 1 1 164.21841735582987 109.48093870797159 115.08024659143446 0 1 0
58 1 1 168.86365534585894 117.39932935031547 110.86245872301066 0 0 1
61 1 1 164.37939692061647 111.48365236747266 110.40099308541099 0 0 1
5811 1 1 162.30690024046572 117.91860061062461 110.6901629329288 0 0 1
6568 1 1 163.43526391766034 111.56933263092483 114.63294195096942 0 1 0
6814 1 1 162.96099094418994 109.53511655980756 120.05385931119716 0 1 0
59 1 1 167.3737915721812 115.44294980814416 110.82669802621162 0 0 1
6819 1 1 169.5737728034619 109.48151151626905 119.81676114325865 0 1 0
60 1 1 165.304434579583 113.83655723069694 110.52491456201423 0 0 1
6784 1 1 179.5025813829771 109.54035104917703 116.6478601066943 0 1 0
55 1 1 175.17842648647365 113.32994635977953 109.12979005908937 0 0 1
2291 1 1 176.14152170959517 119.4858827398944 111.9255701147993 0 1 0
6822 1 1 176.3366383077962 110.85999504491083 119.50823157675543 0 1 0
6605 1 1 170.65125475236889 108.53847942835118 115.42253737317033 0 1 0
6789 1 1 173.22198011478855 118.80872044753413 118.31488452214522 0 1 0
6601 1 1 172.13066901910835 113.89260420673133 114.49241696418163 0 1 0
6600 1 1 169.85797301096918 114.73905085022271 115.61628933331997 0 1 0
6788 1 1 174.05058032128483 117.15655709065469 117.14639487270956 0 1 0
2290 1 1 176.6560454292054 119.78316688736322 114.12405751541915 0 1 0
6786 1 1 177.6186698040916 114.01737275750934 116.05767859353644 0 1 0
2289 1 1 177.15484467274868 120.93011072362073 116.01894770505763 0 1 0
6785 1 1 178.6343833060796 111.57884737478653 115.30643479111573 0 1 0
6824 1 1 180.0069940540742 112.73486041350172 119.6613958734976 0 1 0
6787 1 1 176.14486040570966 115.98517043885722 116.91177935531462 0 1 0
43 1 1 181.45302247210424 120.54797041421142 115.57512450788407 0 0 1
42 1 1 180.13475210570385 121.99631875681074 114.10705248291903 0 0 1
6821 1 1 174.22131093822566 111.4628785326194 118.76404680825496 0 1 0
6790 1 1 172.5102563097668 119.46500836634652 120.4323508264641 0 1 0
6791 1 1 170.87999175761666 121.42037942338325 120.38905743324057 0 1 0
48 1 1 181.73661056707908 109.62259598292664 112.42672552421868 0 0 1
6587 1 1 180.68315134985167 120.44524827704659 119.85525066515467 0 1 0
6591 1 1 173.82599592087456 115.45745021599198 121.77092873389338 0 1 0
6588 1 1 178.73476752134633 120.4038930607146 121.04636017145714 0 1 0
6589 1 1 177.66443146460728 118.45139843218271 121.22891588586019 0 1 0
6590 1 1 176.13829861393322 116.19359151346944 121.1157023937299 0 1 0
5603 1 1 179.39344133107974 115.23377132413796 109.23938253816448 0 0 1
6602 1 1 174.1750447434859 114.27459814907739 113.26784932900783 0 1 0
54 1 1 176.07530573090855 111.24971979107968 108.76430017383835 0 0 1
6820 1 1 171.69361158951978 111.06003819313018 118.9857038046303 0 1 0
6823 1 1 178.4891525068836 110.97709495809221 120.76379529844823 0 1 0
56 1 1 173.17399499065078 115.08673140083931 109.1780200121147 0 0 1
6604 1 1 171.24582771561955 110.47138982315144 113.72284579273857 0 1 0
2292 1 1 175.18409094742356 120.36652739886685 109.81737696421641 0 1 0
5602 1 1 179.4655699236304 117.36248562178535 110.47018269343647 0 0 1
5601 1 1 181.31381387475835 118.53923746892637 109.06564400112774 0 0 1
6603 1 1 172.20146537700145 112.51297176221158 113.01940821932136 0 1 0
57 1 1 171.3522618763299 117.25706547726348 109.99133676497816 0 0 1
15 1 1 190.65507309871032 110.38908614873242 111.32345464849834 0 0 1
7920 1 1 193.7306591112653 111.45873622595911 117.16871157760426 0 0 1
7919 1 1 191.84592428926595 112.18139920081771 115.56910525573264 0 0 1
45 1 1 181.87875854173552 116.4766469600583 114.26744939155597 0 0 1
6828 1 1 187.16383333831487 118.62847236652182 118.0976786720424 0 1 0
6825 1 1 181.95460102576527 113.83898475739437 118.25469902384005 0 1 0
6826 1 1 183.90664028342104 115.57330099338091 118.13702504118514 0 1 0
44 1 1 182.60225266610615 118.48485610763716 115.4718465680075 0 0 1
7434 1 1 187.90971453910862 114.9982412761304 116.4499878587796 0 0 1
7437 1 1 189.95760928157998 109.31609978086111 117.9672631783088 0 0 1
7436 1 1 188.7980357853965 111.3729520846525 118.56997491349794 0 0 1
7432 1 1 185.9324655952671 116.67821606306956 112.55711340439865 0 0 1
7435 1 1 188.67122121350465 114.09299191267999 118.41657852274129 0 0 1
7433 1 1 186.65410682746344 115.33159349234296 114.28853493979774 0 0 1
7916 1 1 191.72156591931406 118.72261672904862 114.51432978256891 0 0 1
7918 1 1 191.49020669330116 114.51302352426208 114.35442707721505 0 0 1
7917 1 1 192.2522827514333 116.81728516429402 113.28854872772459 0 0 1
7914 1 1 188.47637068044338 121.06385836235016 114.75144229992243 0 0 1
7915 1 1 189.47245852338625 119.03409913583474 114.41862877580743 0 0 1
21 1 1 190.27319731998347 121.9605827690135 111.19215557723467 0 0 1
20 1 1 191.66940213922237 120.3959649999549 109.95216251074837 0 0 1
46 1 1 182.1882074638424 114.29361909768727 113.47520646545333 0 0 1
7431 1 1 185.28049901972196 119.02387968575239 111.83585299351633 0 0 1
7430 1 1 185.02566282032154 121.70968952261128 111.89514672319909 0 0 1
47 1 1 182.90394316996517 111.82612291677522 113.0552697527545 0 0 1
18 1 1 189.22965007885063 117.04224615256047 109.3977335751658 0 0 1
6829 1 1 189.61468088196824 118.48911685366286 118.85117113721927 0 1 0
6827 1 1 185.25526428334155 117.60873604339874 118.7240344450939 0 1 0
6830 1 1 191.77468464237933 117.47175098428393 119.40015389905653 0 1 0
6831 1 1 193.36480955888123 117.56612322349314 121.11076411580675 0 1 0
17 1 1 189.09824539754834 114.76485492441532 110.28154845856103 0 0 1
5605 1 1 182.33768201890297 111.74440095134848 108.55045860586529 0 0 1
10 1 1 185.28264284681325 109.05777461677668 116.46933833735963 0 0 1
8 1 1 185.2121440863316 109.64064675882054 120.44327448307374 0 0 1
5600 1 1 183.39660572157476 119.5988534418636 108.46176802897303 0 0 1
9 1 1 184.31136656470244 110.3675989189466 118.34485658112965 0 0 1
16 1 1 190.06836053379033 112.39612190180098 110.25164797898277 0 0 1
19 1 1 191.3607359735504 118.49475610815217 108.42059444162513 0 0 1
7290 1 1 116.97849263982617 128.94537969764744 110.47804417624735 1 0 1
7907 1 1 108.49241733183186 132.5234761740241 115.82316730485508 1 0 1
7837 1 1 112.25037516572256 123.57674941321397 113.57704575021941 1 0 1
8617 1 1 117.82307353142708 134.8189308870927 118.60529093434072 1 0 1
8462 1 1 116.54725939717488 126.19034133127901 113.76149524098811 1 0 1
8464 1 1 112.66717320994546 128.96458777679157 115.67304937362523 1 0 1
6854 1 1 115.54304240595246 128.00578615016727 120.73492688125391 1 1 0
6853 1 1 117.57323669180471 129.39166197396716 121.82750638360856 1 1 0
6855 1 1 113.59825508408697 126.66739573807982 120.55792555341694 1 1 0
8463 1 1 114.74529628266411 127.88930226585256 114.27040099095704 1 0 1
8461 1 1 118.77130548258451 125.7636431135784 112.86912793098246 1 0 1
7419 1 1 108.76772821421774 130.94818430621075 121.14938225605863 1 0 1
7418 1 1 111.27782416040606 132.3535773042158 121.88070115407128 1 0 1
8453 1 1 118.43162763730228 124.40367712954534 120.37995062234319 1 0 1
8454 1 1 119.20232054777418 125.25602878520259 118.55229330685852 1 0 1
8452 1 1 117.2808761246935 124.31593346042233 122.56998767223241 1 0 1
8620 1 1 119.06270821150767 129.57615559879795 114.40838702272679 1 0 1
8618 1 1 117.64215739276733 133.1265878875306 116.47011957845172 1 0 1
8619 1 1 117.79751327343955 130.7596948286457 116.10298842048526 1 0 1
8465 1 1 110.53500135904227 128.45398134158816 117.03799592711306 1 0 1
8466 1 1 109.18769810163685 126.72192459479717 117.23418032042113 1 0 1
6856 1 1 111.27020997372779 127.03658975753228 120.98810881269597 1 1 0
24 1 1 108.56601657390271 128.09826808185665 112.69971116119034 1 0 1
7901 1 1 113.1720633953649 127.41126188319078 108.64178794418795 1 0 1
25 1 1 108.66258088198559 130.57689344818698 111.8092825508705 1 0 1
7903 1 1 112.6376956947977 131.94515330601195 109.36915932956096 1 0 1
7906 1 1 110.79193991900118 132.88812132318034 115.39318796674709 1 0 1
7905 1 1 112.44897550764559 133.33666878612857 113.30280216260387 1 0 1
7292 1 1 117.16875113446352 132.51983940512085 111.93646104526059 1 0 1
7838 1 1 110.81512893433747 123.16528167976779 111.28889008456878 1 0 1
5382 1 1 109.03077157643534 136.88219572146653 114.41661160142831 1 0 0
7293 1 1 117.6998465200675 134.89833316115744 110.72495457274181 1 0 1
7291 1 1 115.72919249314295 130.6012491741522 111.75745293812605 1 0 1
7289 1 1 118.70362026929317 129.87813942345372 108.56636766670822 1 0 1
7836 1 1 112.57637981589014 123.61658941184646 116.17585175978742 1 0 1
7294 1 1 119.87434475870953 136.16599509751975 110.38357289940654 1 0 1
7904 1 1 112.98043062392493 134.1059813173156 110.68774621019651 1 0 1
5101 1 1 129.48226051226027 124.09669125708477 111.09224396230998 1 0 1
7829 1 1 122.20773391119418 122.70395684928822 121.784523798963 1 0 1
7828 1 1 123.85268558976014 124.13364726535042 122.45907630973937 1 0 1
8622 1 1 123.343351534919 128.44265919170311 112.75855294953668 1 0 1
7827 1 1 126.11204800205283 125.5254151318639 122.57783153599799 1 0 1
1500 1 1 121.56080089278792 130.16819474235726 119.35842460806906 0 1 0
9524 1 1 130.47283542772234 134.11199394258003 117.46386070855242 0 0 0
5100 1 1 129.77727297566233 124.68087878176969 112.93036490623821 1 0 1
8624 1 1 125.00425426690843 129.37969791754338 108.82521883714641 1 0 1
8623 1 1 125.16682342115661 128.65627107908864 110.9521597942892 1 0 1
9339 1 1 131.063606270442 128.1924521017561 111.12370264498894 0 0 0
9525 1 1 131.86279187620454 134.32246583082033 115.28318982701273 0 0 0
8459 1 1 122.50759601633595 124.1592065739785 111.4153271100093 1 0 1
8458 1 1 124.57605844580131 123.85510385031642 112.81705267558443 1 0 1
8457 1 1 124.26999262629548 122.80848241119115 114.90737062876782 1 0 1
8456 1 1 123.37168254658309 122.82054586848811 117.1636888702438 1 0 1
9694 1 1 126.08483329154689 132.4779984581696 112.92321328421377 0 0 0
8455 1 1 121.73251498096305 124.70414666508816 117.6880156468643 1 0 1
1497 1 1 127.26765819557025 126.92507913742392 118.45504799936214 0 1 0
1496 1 1 129.47110596861063 126.12043219677514 118.49778228654182 0 1 0
1495 1 1 131.74295082325997 126.19695739625719 119.92120511925732 0 1 0
8621 1 1 121.55021369188907 129.26414392306177 113.49674630817931 1 0 1
9522 1 1 130.6631458626321 130.3951172777855 120.12137025286741 0 0 0
5102 1 1 130.90673813820905 124.36212987035799 109.07358490897568 1 0 1
9521 1 1 128.51917053308506 129.81207338727273 121.47095750760477 0 0 0
1499 1 1 123.60983796968247 129.6779430325416 119.71030482267554 0 1 0
1498 1 1 125.14290463899444 128.24289183273055 118.7336893126223 0 1 0
9523 1 1 129.92391797619968 131.8467267069615 118.16002546186192 0 0 0
9696 1 1 128.33492928535642 131.62404520684305 109.45166963741345 0 0 0
9340 1 1 131.32949726898332 128.77260749076407 113.17906408292693 0 0 0
9695 1 1 127.8124177219526 133.35742250806155 111.23187414423442 0 0 0
3376 1 1 127.36302423392445 136.46976987901235 119.67037942553792 0 0 0
3375 1 1 124.87958737748927 135.95839813150468 120.21382384518503 0 0 0
3374 1 1 122.37588138662406 136.27393713606483 121.00536256363506 0 0 0
9338 1 1 131.33689485522996 128.54980867848437 108.56006550451936 0 0 0
5099 1 1 131.72618414186417 124.92129354158307 114.2852388518737 1 0 1
9341 1 1 131.6467595618574 129.74787122145605 115.21307388565188 0 0 0
9526 1 1 132.37470919663036 134.18853158002298 112.9155254518114 0 0 0
9691 1 1 123.16227605046306 136.4101919316314 116.19942816299982 0 0 0
9692 1 1 122.10250197771204 134.57580383340746 115.18016137353328 0 0 0
9693 1 1 123.53166605900621 133.0864896995023 113.63971339741846 0 0 0
1501 1 1 121.19120966060585 131.8590018136229 121.24931046789008 0 1 0
8460 1 1 120.7703147269747 125.67722068417511 111.17904582911332 1 0 1
9370 1 1 144.71261427548134 126.32176847242411 115.23135772841383 0 0 0
9342 1 1 133.53029809374547 129.69910781450744 116.7985481212583 0 0 0
9343 1 1 135.19660260451437 130.34436011023593 118.85346351641704 0 0 0
9344 1 1 135.0285573287857 132.7504675252977 119.37744538860699 0 0 0
1494 1 1 133.42796881259787 125.37784714414417 121.48978817933373 0 1 0
9345 1 1 134.822424369408 135.21022093417267 118.65760266028046 0 0 0
9477 1 1 143.61203691179594 127.38313365757955 121.19281549457263 0 0 0
9473 1 1 138.5189931778961 124.16758784946173 116.4849955074358 0 0 0
9369 1 1 142.93277326054312 128.15331076575552 116.6131113567065 0 0 0
9381 1 1 140.670114821688 124.35164573391722 110.82648986266122 0 0 0
9380 1 1 139.03099674940427 122.87047873542012 111.36558292861663 0 0 0
9368 1 1 142.01321855564746 129.91953154373485 117.70156019435352 0 0 0
9475 1 1 141.58592491917014 123.10409025143126 119.1778582995315 0 0 0
9476 1 1 142.62404788892422 125.15640034642217 120.18200033432616 0 0 0
9456 1 1 144.9677852243601 133.4685097852436 115.86996827296225 0 0 0
9472 1 1 138.2458699157267 126.63379730255835 115.89389014956214 0 0 0
9382 1 1 140.48247673643877 126.85427152088155 111.34980425139838 0 0 0
9469 1 1 140.18452631969123 132.92253568413804 112.76321405417734 0 0 0
9471 1 1 138.3738902522463 128.60544023953366 114.4552565446088 0 0 0
9470 1 1 139.24602696210252 130.8106528173152 114.06945581376063 0 0 0
9468 1 1 140.0066294939951 133.65034563310746 109.77149929051755 0 0 0
9383 1 1 141.87800245298533 128.9243226647893 111.5047631090228 0 0 0
9455 1 1 143.89051592902032 135.51295430976455 115.44937716645461 0 0 0
9527 1 1 133.76152354329443 133.71649349119926 110.71096103293506 0 0 0
9478 1 1 144.5301294557085 129.72297351678054 121.43396180165762 0 0 0
9365 1 1 139.03813570471948 135.56024811683008 118.2736642048897 0 0 0
9366 1 1 139.2157191601918 133.50811278002556 119.81406356227276 0 0 0
9367 1 1 139.99964614641203 130.9610304016265 118.72179994393349 0 0 0
9384 1 1 143.6748820963641 130.743006267891 111.60148783778963 0 0 0
5098 1 1 134.1895850237513 124.9614044032763 114.3748998886681 1 0 1
5097 1 1 134.58543493859963 123.90975719187192 112.34292951093784 1 0 1
9371 1 1 145.35730005430375 124.32944589303325 113.63150422366839 0 0 0
9423 1 1 153.40922572118757 124.63788736197124 117.46650948365979 0 0 0
9422 1 1 153.43232175838574 125.70433997798622 119.66465398405225 0 0 0
9427 1 1 154.17611379625538 126.08456900251153 108.57558279028738 0 0 0
5989 1 1 155.64934922079323 136.24264794847844 112.52199469102668 0 0 0
9485 1 1 147.9571094934355 123.49999231124158 117.34259180128068 0 0 0
9457 1 1 146.24078754712824 131.31132618410294 115.03656649043117 0 0 0
9424 1 1 153.15174464854738 125.21660937019638 115.27050885018151 0 0 0
9458 1 1 148.27329264009168 131.29273254641654 113.7263999542808 0 0 0
9426 1 1 154.38766355252542 125.52144401252691 110.9051949758387 0 0 0
9425 1 1 153.25528834499988 125.08086591898626 112.91904929059142 0 0 0
4965 1 1 148.99133910675096 135.47049168296897 110.82256112389062 0 0 1
9484 1 1 149.29650257619002 125.89603612803674 117.01975973049346 0 0 0
9483 1 1 149.94157711167256 127.96888200015482 117.12736866458283 0 0 0
9459 1 1 149.07411745228714 131.3809134033101 111.55108136815228 0 0 0
9419 1 1 154.9670824977286 130.37044638437806 118.35209044253534 0 0 0
9418 1 1 154.88976991240673 129.52965578803236 116.20214388630737 0 0 0
9417 1 1 155.5347965851273 128.20462282504707 114.41860657796862 0 0 0
9429 1 1 153.35807896747178 130.5028900004633 109.94800206286271 0 0 0
9430 1 1 153.54306775216656 131.8622703812499 111.92940762927113 0 0 0
9416 1 1 157.32874163383156 126.40155409860323 113.89703271456929 0 0 0
9431 1 1 153.0908069240634 132.63033923223435 114.3715173399057 0 0 0
9252 1 1 154.46898678333153 134.92465078054983 118.69539703642093 0 0 0
9433 1 1 150.51284770526323 135.25185738328673 117.02263035868137 0 0 0
9432 1 1 151.4370491451732 133.61841633148128 115.5006671027939 0 0 0
9250 1 1 150.79416894551983 135.8541770453893 122.33607136192984 0 0 0
9251 1 1 152.89650996185983 135.35934062080392 120.79050176971444 0 0 0
9481 1 1 148.83070508176615 132.1107335135196 120.53453127698445 0 0 0
9480 1 1 147.8214463282448 132.13298649100128 122.54730972847565 0 0 0
9482 1 1 149.46852714103017 130.31495227658286 118.63936864115561 0 0 0
2242 1 1 156.555951219604 123.16130627493082 122.29386730017484 0 1 0
9479 1 1 145.4610125460703 131.9260556254621 121.97576228292806 0 0 0
9421 1 1 152.7203279243724 127.41009859799149 121.20440620960653 0 0 0
9420 1 1 154.2749536148869 129.47865840261204 120.65921421860264 0 0 0
9495 1 1 146.90155552781857 123.71675682549255 122.08936405075669 0 0 0
9253 1 1 156.8231170409286 135.01092470295293 118.73458241381776 0 0 0
5990 1 1 154.85313109700428 136.13191021843943 110.12012472960978 0 0 0