LAMMPS (23 Jun 2022)
package gpu 0
package gpu 1
#system setting #

units		real
boundary	p p p
atom_style	angle
bond_style      harmonic
angle_style   harmonic
neigh_modify delay 0 every 1

pair_style lj/cut 20

# read model #
read_data ./pva_model.data
Reading data file ...
  orthogonal box = (115.43959 115.43959 115.43959) to (199.16041 199.16041 199.16041)
  1 by 2 by 3 MPI processor grid
  reading atoms ...
  10000 atoms
  reading velocities ...
  10000 velocities
  scanning bonds ...
  1 = max bonds/atom
  scanning angles ...
  1 = max angles/atom
  reading bonds ...
  9900 bonds
  reading angles ...
  9800 angles
Finding 1-2 1-3 1-4 neighbors ...
  special bond factors lj:    0        0        0       
  special bond factors coul:  0        0        0       
     2 = max # of 1-2 neighbors
     2 = max # of 1-3 neighbors
     4 = max # of 1-4 neighbors
     6 = max # of special neighbors
  special bonds CPU = 0.001 seconds
  read_data CPU = 0.055 seconds
#minimize 0.0 1.0e-8 1000 100000

# time integration settings #
timestep		4	# 20fs

# thermosystem set #
#velocity 		all create 300.0 4928459 dist gaussian

# reset timestep #
#reset_timestep 0

# run equilibrium #
#thermo 10000
#fix				1 all npt temp 300.0 300.0 200 iso 1.0 1.0 1000
#run 50000

#unfix 1

# run tensile test #
reset_timestep 0
thermo 10000
thermo_style custom step temp lx ly lz vol cpu
dump 1 all dcd 10000 out.dcd
dump_modify 1 unwrap yes
#write_data ./pva_min.data
fix             1 all npt temp 300.0 300.0 200 x 1.0 -600 1000 y 1.0 1.0 1000 z 1.0 1.0 1000
run 100000

CITE-CITE-CITE-CITE-CITE-CITE-CITE-CITE-CITE-CITE-CITE-CITE-CITE

Your simulation uses code contributions which should be cited:

- GPU package (short-range, long-range and three-body potentials):

@Article{Brown11,
 author = {W. M. Brown, P. Wang, S. J. Plimpton, A. N. Tharrington},
 title = {Implementing Molecular Dynamics on Hybrid High Performance Computers - Short Range Forces},
 journal = {Comp.~Phys.~Comm.},
 year =    2011,
 volume =  182,
 pages =   {898--911}
}

@Article{Brown12,
 author = {W. M. Brown, A. Kohlmeyer, S. J. Plimpton, A. N. Tharrington},
 title = {Implementing Molecular Dynamics on Hybrid High Performance Computers - Particle-Particle Particle-Mesh},
 journal = {Comp.~Phys.~Comm.},
 year =    2012,
 volume =  183,
 pages =   {449--459}
}

@Article{Brown13,
 author = {W. M. Brown, Y. Masako},
 title = {Implementing Molecular Dynamics on Hybrid High Performance Computers – Three-Body Potentials},
 journal = {Comp.~Phys.~Comm.},
 year =    2013,
 volume =  184,
 pages =   {2785--2793}
}

@Article{Trung15,
 author = {T. D. Nguyen, S. J. Plimpton},
 title = {Accelerating dissipative particle dynamics simulations for soft matter systems},
 journal = {Comput.~Mater.~Sci.},
 year =    2015,
 volume =  100,
 pages =   {173--180}
}

@Article{Trung17,
 author = {T. D. Nguyen},
 title = {GPU-accelerated Tersoff potentials for massively parallel Molecular Dynamics simulations},
 journal = {Comp.~Phys.~Comm.},
 year =    2017,
 volume =  212,
 pages =   {113--122}
}

@Article{Nikolskiy19,
 author = {V. Nikolskiy, V. Stegailov},
 title = {GPU acceleration of four-site water models in LAMMPS},
 journal = {Proceeding of the International Conference on Parallel Computing (ParCo 2019), Prague, Czech Republic},
 year =    2019
}

CITE-CITE-CITE-CITE-CITE-CITE-CITE-CITE-CITE-CITE-CITE-CITE-CITE

Generated 0 of 0 mixed pair_coeff terms from geometric mixing rule
Per MPI rank memory allocation (min/avg/max) = 5.908 | 5.911 | 5.914 Mbytes
   Step          Temp            Lx             Ly             Lz           Volume          CPU      
         0   548.62855      83.720819      83.720819      83.720819      586813.91      0            
     10000   300.69734      85.583432      84.020621      84.765994      609533.03      26.60926     
     20000   298.70936      86.144549      83.033786      85.137526      608980.89      53.271966    
     30000   298.60678      86.899643      82.941501      84.485554      608936.96      79.920916    
     40000   302.044        88.925223      81.826177      83.816912      609886.3       106.68404    
     50000   296.14378      90.708694      81.220801      82.760101      609729.49      133.53067    
     60000   298.84245      92.903658      80.260765      81.866874      610441.87      160.43413    
     70000   304.61358      97.68359       78.352675      79.910117      611613.71      187.36396    
     80000   298.33781      105.81204      75.240432      76.845431      611792.87      214.44075    
     90000   301.2741       127.70505      68.343686      70.638228      616518.7       241.82322    
    100000   387.64902      504.12683      39.259913      40.674388      805026.49      272.07781    
Loop time of 272.078 on 6 procs for 100000 steps with 10000 atoms

Performance: 127.022 ns/day, 0.189 hours/ns, 367.542 timesteps/s
100.0% CPU use with 6 MPI tasks x no OpenMP threads

MPI task timing breakdown:
Section |  min time  |  avg time  |  max time  |%varavg| %total
---------------------------------------------------------------
Pair    | 112.93     | 129.53     | 151.12     | 123.3 | 47.61
Bond    | 11.957     | 12.228     | 12.501     |   4.6 |  4.49
Neigh   | 0.77764    | 0.79706    | 0.81693    |   1.5 |  0.29
Comm    | 27.779     | 28.169     | 28.317     |   3.5 | 10.35
Output  | 0.0038699  | 0.0038853  | 0.0039408  |   0.0 |  0.00
Modify  | 75.802     | 97.357     | 113.85     | 141.4 | 35.78
Other   |            | 3.996      |            |       |  1.47

Nlocal:        1666.67 ave        1723 max        1614 min
Histogram: 2 0 1 0 0 0 0 1 1 1
Nghost:        23460.3 ave       23990 max       23021 min
Histogram: 1 0 1 1 1 0 1 0 0 1
Neighs:              0 ave           0 max           0 min
Histogram: 6 0 0 0 0 0 0 0 0 0

Total # of neighbors = 0
Ave neighs/atom = 0
Ave special neighs/atom = 5.88
Neighbor list builds = 4342
Dangerous builds = 0
#write_data ./tensile_test_x.data
Total wall time: 0:04:32
